<?xml version="1.0"?>
<VTKFile type="UnstructuredGrid" version="0.1" byte_order="LittleEndian" header_type="UInt32" compressor="vtkZLibDataCompressor">
  <UnstructuredGrid>
    <Piece NumberOfPoints="117" NumberOfCells="40">
      <PointData Vectors="result">
        <DataArray type="Float64" Name="result" NumberOfComponents="3" format="ascii" RangeMin="0" RangeMax="0.4999999999993254">
          0 0 0 0.12499999999900165 2.600240429992683e-12 -9.868965227721922e-12
          0.2500000000050886 4.343902038609791e-12 -1.877851438546386e-11 0.37500000000923606 8.153848706930799e-13 -8.989461943284722e-12
          0.4999999999993254 0 0 0 0 0
          0.12499999999819875 2.3384518944174516e-12 -3.6529005979471274e-12 0.24999999999900402 4.5984273077434145e-12 -7.137578525146079e-12
          0.37499999999836064 1.9076824411403217e-12 -4.493253937214749e-12 0.4999999999993254 0 0
          0 0 0 0.12499999999818485 -6.494697561329997e-13 4.046192279112117e-12
          0.24999999999334138 -1.2050543897096952e-12 7.280558687200274e-12 0.3749999999959898 -1.7808773237966728e-12 2.263025814338306e-12
          0.4999999999993254 0 0 0 0 0
          0.12500000000089515 -1.5440417452669086e-12 6.005829599075377e-12 0.24999999999689088 -2.685532176717779e-13 9.044748493036225e-12
          0.374999999994587 2.6418430262148667e-13 4.645655067238369e-12 0.4999999999993254 0 0
          0 0 0 0.1250000000045918 -6.453017924496645e-13 1.1689516356734608e-11
          0.2500000000000484 -2.46705834823739e-12 1.7380781689379458e-11 0.37499999999957884 8.521139407957883e-12 1.1501923269621709e-11
          0.4999999999993254 0 0 0 0 0
          0.12500000000206146 -2.2625149936494096e-12 -1.1550432849687336e-11 0.2500000000035447 -2.9384908884851253e-12 -1.3602033988469058e-11
          0.37500000000279576 -5.051807695683776e-13 -8.134150310515052e-12 0.4999999999993254 0 0
          0 0 0 0.2499999999991403 -3.477253138138808e-12 -4.8249959474034666e-12
          0.4999999999993254 0 0 0 0 0
          0.1249999999947732 -1.8655475543792485e-12 2.0501701657675537e-12 0.24999999999064182 -8.566492025713601e-12 8.528380387903857e-12
          0.37499999999447764 -4.495731280707135e-12 4.368873552294248e-12 0.4999999999993254 0 0
          0 0 0 0.24999999999898886 -1.0380807033047288e-11 1.1981498996159516e-11
          0.4999999999993254 0 0 0 0 0
          0.12500000000008188 -5.52893239940453e-12 9.171677906297425e-12 0.25000000000010797 -1.00879933778564e-11 1.4945528398319403e-11
          0.37499999999975 -2.4796873115371125e-12 1.4102515742389139e-11 0.4999999999993254 0 0
          0 0 0 0.12499999999856447 -5.858259984343458e-12 -4.131345098854866e-12
          0.24999999999955377 -6.4741940315105235e-12 -9.708302529527657e-12 0.37500000000117945 -3.39834362892309e-12 -7.314904053735034e-12
          0.4999999999993254 0 0 0 0 0
          0.12499999999722633 -5.266368597442567e-12 -1.2327465729560351e-12 0.2499999999952656 -6.48980109086675e-12 -1.8395839839014457e-12
          0.3749999999964302 -4.558160484596633e-12 -1.96875697634343e-12 0.4999999999993254 0 0
          0 0 0 0.12499999999470338 -2.6767974298171245e-12 5.643049131546108e-12
          0.24999999998939185 -8.280510816737347e-12 7.176067892719379e-12 0.3749999999890465 -5.310852378987693e-12 2.914998046622377e-12
          0.4999999999993254 0 0 0 0 0
          0.12499999999576662 -4.748607046349605e-12 8.398916658867206e-12 0.2499999999950288 -8.037770739880072e-12 1.2038822358711315e-11
          0.3749999999954768 -7.804486439308262e-12 8.164551886932467e-12 0.4999999999993254 0 0
          0 0 0 0.12500000000464734 -4.169819057337138e-12 1.2517620678198374e-11
          0.2500000000037587 -1.50306706975159e-11 2.5878842618274917e-11 0.37499999999910244 -1.3456606775970575e-11 1.7101394573240547e-11
          0.4999999999993254 0 0 0 0 0
          0.12499999999709496 -1.0029240829953468e-11 -2.8750720472989558e-12 0.25000000000124123 -1.5998885226732525e-11 -7.78032368755786e-12
          0.37500000000260186 -1.0148423588013784e-11 -4.833362163715419e-12 0.4999999999993254 0 0
          0 0 0 0.2499999999996957 -1.5386181478834976e-11 1.2736767491084257e-13
          0.4999999999993254 0 0 0 0 0
          0.12499999999989912 -1.3134945588193182e-11 9.850789919153358e-12 0.24999999999876693 -1.5126918551774726e-11 1.0265625149245363e-11
          0.3749999999986941 -8.01290732851081e-12 8.942584918639765e-13 0.4999999999993254 0 0
          0 0 0 0.24999999999935496 -2.2541558458062265e-11 1.5437829557956905e-11
          0.4999999999993254 0 0 0 0 0
          0.12500000000684383 -1.510674284297584e-11 1.577026957843071e-11 0.2499999999986224 -3.376675809478924e-11 3.5214897145582343e-11
          0.37499999999413514 -1.9491898270052342e-11 1.3760269056672812e-11 0.4999999999993254 0 0
          0 0 0 0.12499999999370158 -1.0827424924977261e-11 -1.111584571219078e-12
          0.2500000000023255 -2.407174680647035e-11 -7.275443266978733e-12 0.37500000001197514 -1.889489299415372e-11 -2.3284782685519345e-12
          0.4999999999993254 0 0 0 0 0
          0.12499999999967461 -1.3786587139979315e-11 5.266682842219075e-13 0.2500000000038414 -2.0391461724394533e-11 -4.385657351060716e-12
          0.37500000000208156 -1.338095591229959e-11 -1.6019654386613653e-12 0.4999999999993254 0 0
          0 0 0 0.12500000000555536 -1.462439219415118e-11 1.1369925906168203e-11
          0.2500000000124308 -1.8319479345328064e-11 7.853135079949214e-12 0.37500000000990547 -9.63169863626519e-12 -5.955630326875743e-13
          0.4999999999993254 0 0 0 0 0
          0.12499999999589306 -1.6686232972989515e-11 1.5125925628519615e-11 0.25000000001320105 -2.5780632695203006e-11 1.7194187599700814e-11
          0.37500000000927586 -1.5132655012529788e-11 6.3477284723112534e-12 0.4999999999993254 0 0
          0 0 0 0.12500000000205852 -2.1937698629752278e-11 1.9618807698232896e-11
          0.2500000000041842 -3.9555820420038393e-11 3.315789519132124e-11 0.37500000000008094 -1.7489458462955094e-11 1.1367969678282563e-11
          0.4999999999993254 0 0
          <InformationKey name="L2_NORM_RANGE" location="vtkDataArray" length="2">
            <Value index="0">
              0
            </Value>
            <Value index="1">
              0.5
            </Value>
          </InformationKey>
        </DataArray>
      </PointData>
      <CellData>
      </CellData>
      <Points>
        <DataArray type="Float64" Name="Points" NumberOfComponents="3" format="ascii" RangeMin="0" RangeMax="3.4641016151377544">
          0 0 0 0.5 0 0
          1 0 0 1.5 0 0
          2 0 0 0 0.5 0
          0.5 0.5 0 1 0.5 0
          1.5 0.5 0 2 0.5 0
          0 1 0 0.5 1 0
          1 1 0 1.5 1 0
          2 1 0 0 1.5 0
          0.5 1.5 0 1 1.5 0
          1.5 1.5 0 2 1.5 0
          0 2 0 0.5 2 0
          1 2 0 1.5 2 0
          2 2 0 0 0 0.5
          0.5 0 0.5 1 0 0.5
          1.5 0 0.5 2 0 0.5
          0 0.5 0.5 1 0.5 0.5
          2 0.5 0.5 0 1 0.5
          0.5 1 0.5 1 1 0.5
          1.5 1 0.5 2 1 0.5
          0 1.5 0.5 1 1.5 0.5
          2 1.5 0.5 0 2 0.5
          0.5 2 0.5 1 2 0.5
          1.5 2 0.5 2 2 0.5
          0 0 1 0.5 0 1
          1 0 1 1.5 0 1
          2 0 1 0 0.5 1
          0.5 0.5 1 1 0.5 1
          1.5 0.5 1 2 0.5 1
          0 1 1 0.5 1 1
          1 1 1 1.5 1 1
          2 1 1 0 1.5 1
          0.5 1.5 1 1 1.5 1
          1.5 1.5 1 2 1.5 1
          0 2 1 0.5 2 1
          1 2 1 1.5 2 1
          2 2 1 0 0 1.5
          0.5 0 1.5 1 0 1.5
          1.5 0 1.5 2 0 1.5
          0 0.5 1.5 1 0.5 1.5
          2 0.5 1.5 0 1 1.5
          0.5 1 1.5 1 1 1.5
          1.5 1 1.5 2 1 1.5
          0 1.5 1.5 1 1.5 1.5
          2 1.5 1.5 0 2 1.5
          0.5 2 1.5 1 2 1.5
          1.5 2 1.5 2 2 1.5
          0 0 2 0.5 0 2
          1 0 2 1.5 0 2
          2 0 2 0 0.5 2
          0.5 0.5 2 1 0.5 2
          1.5 0.5 2 2 0.5 2
          0 1 2 0.5 1 2
          1 1 2 1.5 1 2
          2 1 2 0 1.5 2
          0.5 1.5 2 1 1.5 2
          1.5 1.5 2 2 1.5 2
          0 2 2 0.5 2 2
          1 2 2 1.5 2 2
          2 2 2
          <InformationKey name="L2_NORM_RANGE" location="vtkDataArray" length="2">
            <Value index="0">
              0
            </Value>
            <Value index="1">
              3.4641016151
            </Value>
          </InformationKey>
        </DataArray>
      </Points>
      <Cells>
        <DataArray type="Int64" Name="connectivity" format="ascii" RangeMin="0" RangeMax="116">
          0 2 10 46 1 6
          5 25 26 30 2 58
          46 48 31 52 26 27
          53 47 2 10 58 12
          6 34 31 7 11 35
          58 10 46 56 34 30
          52 57 33 51 58 2
          46 10 31 26 52 34
          6 30 2 4 14 50
          3 9 8 28 29 32
          14 58 50 60 36 54
          32 37 59 55 2 58
          14 12 31 36 8 7
          35 13 2 50 58 48
          28 54 31 27 49 53
          50 58 14 2 54 36
          32 28 31 8 10 12
          22 58 11 17 16 34
          35 39 22 66 58 68
          42 62 39 43 67 63
          10 66 22 20 38 42
          16 15 41 21 10 58
          66 56 34 62 38 33
          57 61 58 66 22 10
          62 42 39 34 38 16
          12 14 22 58 13 18
          17 35 36 39 14 70
          58 60 40 64 36 37
          65 59 14 22 70 24
          18 44 40 19 23 45
          70 22 58 68 44 39
          64 69 43 63 70 14
          58 22 40 36 64 44
          18 39 46 48 58 94
          47 53 52 72 73 77
          58 102 94 104 80 98
          77 81 103 99 46 102
          58 56 76 80 52 51
          79 57 46 94 102 92
          72 98 76 71 93 97
          94 102 58 46 98 80
          77 72 76 52 48 50
          58 94 49 54 53 73
          74 77 50 106 94 96
          78 100 74 75 101 95
          50 58 106 60 54 82
          78 55 59 83 106 58
          94 104 82 77 100 105
          81 99 106 50 94 58
          78 74 100 82 54 77
          56 58 66 102 57 62
          61 79 80 84 58 114
          102 104 85 108 80 81
          109 103 58 66 114 68
          62 88 85 63 67 89
          114 66 102 112 88 84
          108 113 87 107 114 58
          102 66 85 80 108 88
          62 84 58 60 70 106
          59 65 64 82 83 86
          70 114 106 116 90 110
          86 91 115 111 58 114
          70 68 85 90 64 63
          89 69 58 106 114 104
          82 110 85 81 105 109
          106 114 70 58 110 90
          86 82 85 64
        </DataArray>
        <DataArray type="Int64" Name="offsets" format="ascii" RangeMin="10" RangeMax="400">
          10 20 30 40 50 60
          70 80 90 100 110 120
          130 140 150 160 170 180
          190 200 210 220 230 240
          250 260 270 280 290 300
          310 320 330 340 350 360
          370 380 390 400
        </DataArray>
        <DataArray type="UInt8" Name="types" format="ascii" RangeMin="24" RangeMax="24">
          24 24 24 24 24 24
          24 24 24 24 24 24
          24 24 24 24 24 24
          24 24 24 24 24 24
          24 24 24 24 24 24
          24 24 24 24 24 24
          24 24 24 24
        </DataArray>
      </Cells>
    </Piece>
  </UnstructuredGrid>
</VTKFile>
