<?xml version="1.0"?>
<VTKFile type="UnstructuredGrid" version="0.1" byte_order="LittleEndian" header_type="UInt32" compressor="vtkZLibDataCompressor">
  <UnstructuredGrid>
    <Piece NumberOfPoints="15" NumberOfCells="4">
      <PointData Scalars="result[0]">
        <DataArray type="Float64" Name="result[0]" format="ascii" RangeMin="0" RangeMax="0.49999999999972083">
          0 0 0 0.12499999999998927 0.12499999999998325 0.1249999999999808
          0.24999999999999786 0.24999999999995492 0.24999999999996533 0.37499999999999906 0.3749999999998762 0.3749999999999369
          0.49999999999972083 0.49999999999972083 0.49999999999972083
        </DataArray>
        <DataArray type="Float64" Name="result[1]" format="ascii" RangeMin="-7.155910909039629e-14" RangeMax="1.0602676961673267e-13">
          0 0 0 -8.701493733795264e-15 -3.5169147908143085e-15 7.026318033895362e-15
          -3.213072346273673e-14 1.9423128043939956e-15 4.334152677597916e-14 -7.155910909039629e-14 2.6236345646179285e-14 1.0602676961673267e-13
          0 0 0
        </DataArray>
      </PointData>
      <CellData>
      </CellData>
      <Points>
        <DataArray type="Float64" Name="Points" NumberOfComponents="3" format="ascii" RangeMin="0" RangeMax="2.23606797749979">
          0 0 0 0 0.5 0
          0 1 0 0.5 0 0
          0.5 0.5 0 0.5 1 0
          1 0 0 1 0.5 0
          1 1 0 1.5 0 0
          1.5 0.5 0 1.5 1 0
          2 0 0 2 0.5 0
          2 1 0
          <InformationKey name="L2_NORM_RANGE" location="vtkDataArray" length="2">
            <Value index="0">
              0
            </Value>
            <Value index="1">
              2.2360679775
            </Value>
          </InformationKey>
        </DataArray>
      </Points>
      <Cells>
        <DataArray type="Int64" Name="connectivity" format="ascii" RangeMin="0" RangeMax="14">
          0 6 2 3 4 1
          6 8 2 7 5 4
          6 12 8 9 10 7
          12 14 8 13 11 10
        </DataArray>
        <DataArray type="Int64" Name="offsets" format="ascii" RangeMin="6" RangeMax="24">
          6 12 18 24
        </DataArray>
        <DataArray type="UInt8" Name="types" format="ascii" RangeMin="22" RangeMax="22">
          22 22 22 22
        </DataArray>
      </Cells>
    </Piece>
  </UnstructuredGrid>
</VTKFile>
